compound_name,boiling_point,SMILES
tert_butyl_acetate,369.1,C(C)(=O)OC(C)(C)C
tert_butyl_chloride,323.8,C(C)(C)(C)Cl
tert_butyl_disulfide,473.6,C(C)(C)(C)SSC(C)(C)C
tert_butyl_ethyl_ether,346,C(C)OC(C)(C)C
tert_butyl_formate,356,C(=O)OC(C)(C)C
tert_butyl_mercaptan,337.4,C(C)(C)(C)S
tetrahydrofuran,338,O1CCCC1
tetrahydropyran,361.1,O1CCCCC1
tetrahydrothiophene,394.3,S1CCCC1
thiophene,357.3,S1C=CC=C1
toluene,383.8,CC1=CC=CC=C1
trans_12_dimethylcyclohexane,396.6,C[C@H]1[C@@H](CCCC1)C
trans_13_dimethylcyclohexane,397.6,C[C@@H]1C[C@H](CCC1)C
trans_14_dimethylcyclohexane,392.5,C[C@@H]1CC[C@H](CC1)C
trans_23_epoxybutane,327.6,CC1C(O1)C
trans_2_butene,274,C\C=C\C
trans_2_hexene,341,C\C=C\CCC
triamylamine,516.2,C(CCCC)N(CCCCC)CCCCC
trichloroacetonitrile,356.6,ClC(C#N)(Cl)Cl
trichloroacetyl_chloride,388.1,ClC(C(=O)Cl)(Cl)Cl
trifluoromethoxybenzene,375.1,FC(OC1=CC=CC=C1)(F)F
trimethylamine,276,CN(C)C
tripropylamine,429.7,C(CC)N(CCC)CCC
tri_n_butylamine,487.2,C(CCC)N(CCCC)CCCC
valeraldehyde,376.1,C(CCCC)=O
valeric_acid,458.6,C(CCCC)(=O)O
valeronitrile,414.4,C(CCCC)#N
vinyl_fluoride,200.9,C(=C)F
¦Á_Methylstyrene,438.6,CC(=C)C1=CC=CC=C1
¦Á¦Á¦Á_trifluorotoluene,375.1,FC(C1=CC=CC=C1)(F)F
n_butyl_stearate,623.1,C(CCCCCCCCCCCCCCCCC)(=O)OCCCC